295
Lattice="20.046477246638624 0.0 0.0 0.0 20.046477246638624 0.0 0.0 0.0 40.125" Properties=species:S:1:pos:R:3:tags:I:1 energy=-942.4863879368996 pbc="T T F"
Al       1.43189123       1.43189123      15.00000000        6
Al       4.29567370       1.43189123      15.00000000        6
Al       7.15945616       1.43189123      15.00000000        6
Al      10.02323862       1.43189123      15.00000000        6
Al      12.88702109       1.43189123      15.00000000        6
Al      15.75080355       1.43189123      15.00000000        6
Al      18.61458601       1.43189123      15.00000000        6
Al       1.43189123       4.29567370      15.00000000        6
Al       4.29567370       4.29567370      15.00000000        6
Al       7.15945616       4.29567370      15.00000000        6
Al      10.02323862       4.29567370      15.00000000        6
Al      12.88702109       4.29567370      15.00000000        6
Al      15.75080355       4.29567370      15.00000000        6
Al      18.61458601       4.29567370      15.00000000        6
Al       1.43189123       7.15945616      15.00000000        6
Al       4.29567370       7.15945616      15.00000000        6
Al       7.15945616       7.15945616      15.00000000        6
Al      10.02323862       7.15945616      15.00000000        6
Al      12.88702109       7.15945616      15.00000000        6
Al      15.75080355       7.15945616      15.00000000        6
Al      18.61458601       7.15945616      15.00000000        6
Al       1.43189123      10.02323862      15.00000000        6
Al       4.29567370      10.02323862      15.00000000        6
Al       7.15945616      10.02323862      15.00000000        6
Al      10.02323862      10.02323862      15.00000000        6
Al      12.88702109      10.02323862      15.00000000        6
Al      15.75080355      10.02323862      15.00000000        6
Al      18.61458601      10.02323862      15.00000000        6
Al       1.43189123      12.88702109      15.00000000        6
Al       4.29567370      12.88702109      15.00000000        6
Al       7.15945616      12.88702109      15.00000000        6
Al      10.02323862      12.88702109      15.00000000        6
Al      12.88702109      12.88702109      15.00000000        6
Al      15.75080355      12.88702109      15.00000000        6
Al      18.61458601      12.88702109      15.00000000        6
Al       1.43189123      15.75080355      15.00000000        6
Al       4.29567370      15.75080355      15.00000000        6
Al       7.15945616      15.75080355      15.00000000        6
Al      10.02323862      15.75080355      15.00000000        6
Al      12.88702109      15.75080355      15.00000000        6
Al      15.75080355      15.75080355      15.00000000        6
Al      18.61458601      15.75080355      15.00000000        6
Al       1.43189123      18.61458601      15.00000000        6
Al       4.29567370      18.61458601      15.00000000        6
Al       7.15945616      18.61458601      15.00000000        6
Al      10.02323862      18.61458601      15.00000000        6
Al      12.88702109      18.61458601      15.00000000        6
Al      15.75080355      18.61458601      15.00000000        6
Al      18.61458601      18.61458601      15.00000000        6
Al       0.00000000       0.00000000      17.02500000        5
Al       2.86378246       0.00000000      17.02500000        5
Al       5.72756493       0.00000000      17.02500000        5
Al       8.59134739       0.00000000      17.02500000        5
Al      11.45512986       0.00000000      17.02500000        5
Al      14.31891232       0.00000000      17.02500000        5
Al      17.18269478       0.00000000      17.02500000        5
Al       0.00000000       2.86378246      17.02500000        5
Al       2.86378246       2.86378246      17.02500000        5
Al       5.72756493       2.86378246      17.02500000        5
Al       8.59134739       2.86378246      17.02500000        5
Al      11.45512986       2.86378246      17.02500000        5
Al      14.31891232       2.86378246      17.02500000        5
Al      17.18269478       2.86378246      17.02500000        5
Al       0.00000000       5.72756493      17.02500000        5
Al       2.86378246       5.72756493      17.02500000        5
Al       5.72756493       5.72756493      17.02500000        5
Al       8.59134739       5.72756493      17.02500000        5
Al      11.45512986       5.72756493      17.02500000        5
Al      14.31891232       5.72756493      17.02500000        5
Al      17.18269478       5.72756493      17.02500000        5
Al       0.00000000       8.59134739      17.02500000        5
Al       2.86378246       8.59134739      17.02500000        5
Al       5.72756493       8.59134739      17.02500000        5
Al       8.59134739       8.59134739      17.02500000        5
Al      11.45512986       8.59134739      17.02500000        5
Al      14.31891232       8.59134739      17.02500000        5
Al      17.18269478       8.59134739      17.02500000        5
Al       0.00000000      11.45512986      17.02500000        5
Al       2.86378246      11.45512986      17.02500000        5
Al       5.72756493      11.45512986      17.02500000        5
Al       8.59134739      11.45512986      17.02500000        5
Al      11.45512986      11.45512986      17.02500000        5
Al      14.31891232      11.45512986      17.02500000        5
Al      17.18269478      11.45512986      17.02500000        5
Al       0.00000000      14.31891232      17.02500000        5
Al       2.86378246      14.31891232      17.02500000        5
Al       5.72756493      14.31891232      17.02500000        5
Al       8.59134739      14.31891232      17.02500000        5
Al      11.45512986      14.31891232      17.02500000        5
Al      14.31891232      14.31891232      17.02500000        5
Al      17.18269478      14.31891232      17.02500000        5
Al       0.00000000      17.18269478      17.02500000        5
Al       2.86378246      17.18269478      17.02500000        5
Al       5.72756493      17.18269478      17.02500000        5
Al       8.59134739      17.18269478      17.02500000        5
Al      11.45512986      17.18269478      17.02500000        5
Al      14.31891232      17.18269478      17.02500000        5
Al      17.18269478      17.18269478      17.02500000        5
Al       1.43462195       1.43476781      19.03440080        4
Al       4.29677343       1.43712921      19.03547780        4
Al       7.15737567       1.43294817      19.03483138        4
Al      10.02034528       1.42848936      19.03271927        4
Al      12.88553566       1.42771720      19.03128232        4
Al      15.75016945       1.42940370      19.03183527        4
Al      18.61566524       1.43191675      19.03245106        4
Al       1.43668967       4.29677743      19.03524396        4
Al       4.30373083       4.30405273      19.04438646        4
Al       7.15732898       4.30006779      19.04077029        4
Al      10.01664996       4.29674379      19.03884358        4
Al      12.88087116       4.29475716      19.03402896        4
Al      15.74928824       4.29335965      19.03118885        4
Al      18.61566825       4.29531274      19.03276844        4
Al       1.43220302       7.15754823      19.03438141        4
Al       4.29950425       7.15781358      19.04067463        4
Al       7.15837365       7.15907355      19.04745284        4
Al      10.01240279       7.15728884      19.04466270        4
Al      12.87730921       7.15649206      19.03551385        4
Al      15.74592334       7.15781711      19.03173859        4
Al      18.61167473       7.15830006      19.03270310        4
Al       1.42778367      10.02089468      19.03226776        4
Al       4.29626487      10.01729083      19.03878018        4
Al       7.15665031      10.01302276      19.04479796        4
Al      10.01077016      10.01147058      19.04485899        4
Al      12.87429451      10.01852487      19.03682511        4
Al      15.74232512      10.02130403      19.03278705        4
Al      18.60777454      10.02189755      19.03249994        4
Al       1.42739704      12.88617918      19.03108122        4
Al       4.29467643      12.88142354      19.03415958        4
Al       7.15616256      12.87776901      19.03586315        4
Al      10.01779347      12.87481706      19.03714035        4
Al      12.87593584      12.87666245      19.03893039        4
Al      15.74273370      12.88348710      19.03349358        4
Al      18.60804797      12.88533015      19.03253661        4
Al       1.42926072      15.75065087      19.03183818        4
Al       4.29335268      15.74978458      19.03137688        4
Al       7.15765507      15.74641534      19.03214011        4
Al      10.02078154      15.74282662      19.03317639        4
Al      12.88283517      15.74325578      19.03368888        4
Al      15.74634534      15.74682760      19.03304916        4
Al      18.61088752      15.74909538      19.03239280        4
Al       1.43184118      18.61597996      19.03250567        4
Al       4.29535666      18.61615814      19.03300829        4
Al       7.15817503      18.61235098      19.03312770        4
Al      10.02141816      18.60843165      19.03291534        4
Al      12.88472379      18.60849311      19.03275362        4
Al      15.74864739      18.61119276      19.03242561        4
Al      18.61355038      18.61380694      19.03208225        4
Al       0.00054381       0.00097305      21.05721440        3
Al       2.86519968       0.00462404      21.05989683        3
Al       5.72591227       0.00165419      21.06016166        3
Al       8.58824356      -0.01118424      21.05834722        3
Al      11.45292418      -0.01405787      21.05669305        3
Al      14.31613691      -0.00846451      21.05703126        3
Al      17.18128463      -0.00315772      21.05632925        3
Al       0.00388197       2.86540583      21.05971281        3
Al       2.87101314       2.87157525      21.06791150        3
Al       5.72760379       2.87397958      21.06928470        3
Al       8.58460171       2.85523736      21.06212207        3
Al      11.45527654       2.85117048      21.05240709        3
Al      14.31769712       2.85595058      21.05573541        3
Al      17.18306808       2.86139888      21.05670086        3
Al       0.00017033       5.72600386      21.05941718        3
Al       2.87235113       5.72793344      21.06850273        3
Al       5.75010912       5.75141400      21.10456686        3
Al       8.57848577       5.72657194      21.08758055        3
Al      11.43748678       5.72604688      21.07075755        3
Al      14.31513274       5.71759989      21.05191861        3
Al      17.17903799       5.72496749      21.05720677        3
Al      -0.01313221       8.58886447      21.05731310        3
Al       2.85290017       8.58547277      21.06090135        3
Al       5.72493155       8.57983607      21.08780838        3
Al       8.57169055       8.57325340      21.10778789        3
Al      11.43412420       8.58031485      21.07365278        3
Al      14.30661247       8.58617064      21.05639244        3
Al      17.16874124       8.58888394      21.05866711        3
Al      -0.01537729      11.45402967      21.05600184        3
Al       2.84984271      11.45665636      21.05166704        3
Al       5.72546873      11.43836796      21.07141062        3
Al       8.57895695      11.43464547      21.07456387        3
Al      11.42208347      11.42340723      21.08523787        3
Al      14.29942754      11.44653580      21.06099172        3
Al      17.16521134      11.45087137      21.06003703        3
Al      -0.00912483      14.31703582      21.05691538        3
Al       2.85544836      14.31874270      21.05572011        3
Al       5.71729305      14.31598289      21.05253026        3
Al       8.58535254      14.30716978      21.05737634        3
Al      11.44523049      14.30031085      21.06162194        3
Al      14.30755185      14.30857974      21.06080287        3
Al      17.17151521      14.31303203      21.05933468        3
Al      -0.00358173      17.18194184      21.05635335        3
Al       2.86117900      17.18391317      21.05687051        3
Al       5.72482811      17.18014607      21.05782329        3
Al       8.58826824      17.16993507      21.05951076        3
Al      11.44981222      17.16625590      21.06062688        3
Al      14.31212656      17.17233388      21.05946419        3
Al      17.17737061      17.17803461      21.05706426        3
Al       1.43424981       1.43497870      23.06631067        2
Al       4.29854926       1.44094048      23.07376778        2
Al       7.15465070       1.42352408      23.06761963        2
Al      10.02330121       1.40150081      23.06153756        2
Al      12.88538376       1.41630091      23.06407213        2
Al      15.74961024       1.42482484      23.06224590        2
Al      18.61488625       1.43034259      23.06259566        2
Al       1.43935541       4.29912364      23.07341027        2
Al       4.31089003       4.31242732      23.09624928        2
Al       7.15336408       4.30056366      23.08887449        2
Al      10.04022677       4.24987380      23.04707795        2
Al      12.88987476       4.27746727      23.06372075        2
Al      15.75072459       4.28882640      23.06306425        2
Al      18.61590619       4.29389725      23.06477506        2
Al       1.41979987       7.15509752      23.06607980        2
Al       4.29578595       7.15455808      23.08694896        2
Al       7.21324391       7.21683992      23.24924705        2
Al       9.99946700       7.13954878      23.11991359        2
Al      12.89773391       7.12771405      23.04401451        2
Al      15.74095549       7.15411583      23.06641812        2
Al      18.60068920       7.15593130      23.06451091        2
Al       1.39807091      10.02456560      23.06008045        2
Al       4.24584372      10.04251767      23.04496540        2
Al       7.13731773       9.99977343      23.12263650        2
Al       9.95969426       9.96101514      23.16562382        2
Al      12.86383796      10.01056495      23.06841333        2
Al      15.72233706      10.01637779      23.07267963        2
Al      18.58642355      10.02133495      23.06538417        2
Al       1.41504400      12.88643614      23.06387776        2
Al       4.27624677      12.89146054      23.06371305        2
Al       7.12678757      12.89792746      23.04548242        2
Al      10.00869379      12.86401623      23.06986307        2
Al      12.86834331      12.86972320      23.07040130        2
Al      15.72866121      12.87504278      23.07196482        2
Al      18.59602810      12.88320407      23.06541142        2
Al       1.42415904      15.75052524      23.06231259        2
Al       4.28824640      15.75201560      23.06337072        2
Al       7.15355715      15.74202273      23.06738889        2
Al      10.01512085      15.72328342      23.07366232        2
Al      12.87387276      15.72987023      23.07219645        2
Al      15.74002036      15.74100988      23.06523275        2
Al      18.60565568      15.74734841      23.06258447        2
Al       1.42983034      18.61571731      23.06268333        2
Al       4.29351253      18.61732277      23.06510587        2
Al       7.15553977      18.60303082      23.06548519        2
Al      10.02021822      18.58858016      23.06631679        2
Al      12.88214984      18.59726911      23.06567234        2
Al      15.74646592      18.60648224      23.06262791        2
Al      18.61146142      18.61215706      23.06164671        2
Al      -0.00172688      -0.00097568      25.07542781        1
Al       2.86210693       0.00106216      25.07851509        1
Al       5.72587295       0.00617354      25.08116495        1
Al       8.58914064      -0.04068865      25.07871293        1
Al      11.45361508      -0.02418732      25.07903852        1
Al      14.31735444      -0.01217320      25.07629621        1
Al      17.18096137      -0.00480956      25.07466920        1
Al      -0.00011795       2.86282155      25.07840057        1
Al       2.86493516       2.86626710      25.08684635        1
Al       5.73262810       2.88666748      25.09910606        1
Al       8.59114324       2.79270879      25.08336357        1
Al      11.45325203       2.84085631      25.08032949        1
Al      14.31887816       2.85094623      25.07750782        1
Al      17.18242585       2.85858541      25.07599166        1
Al       0.00382453       5.72662699      25.08073030        1
Al       2.88368032       5.73408537      25.09852138        1
Al       5.78265582       5.78694138      25.16856432        1
Al       8.67751783       5.55968024      25.07089751        1
Al      11.47925638       5.69895948      25.09274230        1
Al      14.32553938       5.71449688      25.08052883        1
Al      17.18369981       5.72185758      25.07875729        1
Al      -0.04537319       8.58994988      25.07782792        1
Al       2.78418479       8.59191391      25.08209937        1
Al       5.54681890       8.68096607      25.06840763        1
Al       7.78181601       7.79620304      26.26295409        1
Al      11.48521745       8.51060463      25.02717730        1
Al      14.28849454       8.57902993      25.09202525        1
Al      17.14891605       8.58610230      25.08229222        1
Al      -0.02594498      11.45446336      25.07866109        1
Al       2.83901166      11.45337933      25.07971705        1
Al       5.69644322      11.48132071      25.09316756        1
Al       8.50888342      11.48364196      25.03060286        1
Al      11.41799493      11.41912389      25.08572164        1
Al      14.27382342      11.43695971      25.09835287        1
Al      17.15199776      11.45044008      25.08276800        1
Al      -0.01327577      14.31821210      25.07622031        1
Al       2.84981490      14.31956368      25.07761405        1
Al       5.71333357      14.32727594      25.08104695        1
Al       8.57783944      14.28832247      25.09320901        1
Al      11.43588519      14.27512222      25.09872595        1
Al      14.30410456      14.30518749      25.08314236        1
Al      17.16923540      14.31433635      25.07799310        1
Al      -0.00555819      17.18177319      25.07467975        1
Al       2.85789932      17.18342241      25.07612510        1
Al       5.72117099      17.18560189      25.07908742        1
Al       8.58527079      17.15086697      25.08296093        1
Al      11.44948870      17.15351987      25.08306545        1
Al      14.31341344      17.17032145      25.07807886        1
Al      17.17716165      17.17800066      25.07521342        1
Al       9.77956400       9.77660420      26.72490796        0
