295
Lattice="20.046477246638624 0.0 0.0 0.0 20.046477246638624 0.0 0.0 0.0 40.125" Properties=species:S:1:pos:R:3:tags:I:1 energy=-943.3088396777149 pbc="T T F"
Al       1.43189123       1.43189123      15.00000000        6
Al       4.29567370       1.43189123      15.00000000        6
Al       7.15945616       1.43189123      15.00000000        6
Al      10.02323862       1.43189123      15.00000000        6
Al      12.88702109       1.43189123      15.00000000        6
Al      15.75080355       1.43189123      15.00000000        6
Al      18.61458601       1.43189123      15.00000000        6
Al       1.43189123       4.29567370      15.00000000        6
Al       4.29567370       4.29567370      15.00000000        6
Al       7.15945616       4.29567370      15.00000000        6
Al      10.02323862       4.29567370      15.00000000        6
Al      12.88702109       4.29567370      15.00000000        6
Al      15.75080355       4.29567370      15.00000000        6
Al      18.61458601       4.29567370      15.00000000        6
Al       1.43189123       7.15945616      15.00000000        6
Al       4.29567370       7.15945616      15.00000000        6
Al       7.15945616       7.15945616      15.00000000        6
Al      10.02323862       7.15945616      15.00000000        6
Al      12.88702109       7.15945616      15.00000000        6
Al      15.75080355       7.15945616      15.00000000        6
Al      18.61458601       7.15945616      15.00000000        6
Al       1.43189123      10.02323862      15.00000000        6
Al       4.29567370      10.02323862      15.00000000        6
Al       7.15945616      10.02323862      15.00000000        6
Al      10.02323862      10.02323862      15.00000000        6
Al      12.88702109      10.02323862      15.00000000        6
Al      15.75080355      10.02323862      15.00000000        6
Al      18.61458601      10.02323862      15.00000000        6
Al       1.43189123      12.88702109      15.00000000        6
Al       4.29567370      12.88702109      15.00000000        6
Al       7.15945616      12.88702109      15.00000000        6
Al      10.02323862      12.88702109      15.00000000        6
Al      12.88702109      12.88702109      15.00000000        6
Al      15.75080355      12.88702109      15.00000000        6
Al      18.61458601      12.88702109      15.00000000        6
Al       1.43189123      15.75080355      15.00000000        6
Al       4.29567370      15.75080355      15.00000000        6
Al       7.15945616      15.75080355      15.00000000        6
Al      10.02323862      15.75080355      15.00000000        6
Al      12.88702109      15.75080355      15.00000000        6
Al      15.75080355      15.75080355      15.00000000        6
Al      18.61458601      15.75080355      15.00000000        6
Al       1.43189123      18.61458601      15.00000000        6
Al       4.29567370      18.61458601      15.00000000        6
Al       7.15945616      18.61458601      15.00000000        6
Al      10.02323862      18.61458601      15.00000000        6
Al      12.88702109      18.61458601      15.00000000        6
Al      15.75080355      18.61458601      15.00000000        6
Al      18.61458601      18.61458601      15.00000000        6
Al       0.00000000       0.00000000      17.02500000        5
Al       2.86378246       0.00000000      17.02500000        5
Al       5.72756493       0.00000000      17.02500000        5
Al       8.59134739       0.00000000      17.02500000        5
Al      11.45512986       0.00000000      17.02500000        5
Al      14.31891232       0.00000000      17.02500000        5
Al      17.18269478       0.00000000      17.02500000        5
Al       0.00000000       2.86378246      17.02500000        5
Al       2.86378246       2.86378246      17.02500000        5
Al       5.72756493       2.86378246      17.02500000        5
Al       8.59134739       2.86378246      17.02500000        5
Al      11.45512986       2.86378246      17.02500000        5
Al      14.31891232       2.86378246      17.02500000        5
Al      17.18269478       2.86378246      17.02500000        5
Al       0.00000000       5.72756493      17.02500000        5
Al       2.86378246       5.72756493      17.02500000        5
Al       5.72756493       5.72756493      17.02500000        5
Al       8.59134739       5.72756493      17.02500000        5
Al      11.45512986       5.72756493      17.02500000        5
Al      14.31891232       5.72756493      17.02500000        5
Al      17.18269478       5.72756493      17.02500000        5
Al       0.00000000       8.59134739      17.02500000        5
Al       2.86378246       8.59134739      17.02500000        5
Al       5.72756493       8.59134739      17.02500000        5
Al       8.59134739       8.59134739      17.02500000        5
Al      11.45512986       8.59134739      17.02500000        5
Al      14.31891232       8.59134739      17.02500000        5
Al      17.18269478       8.59134739      17.02500000        5
Al       0.00000000      11.45512986      17.02500000        5
Al       2.86378246      11.45512986      17.02500000        5
Al       5.72756493      11.45512986      17.02500000        5
Al       8.59134739      11.45512986      17.02500000        5
Al      11.45512986      11.45512986      17.02500000        5
Al      14.31891232      11.45512986      17.02500000        5
Al      17.18269478      11.45512986      17.02500000        5
Al       0.00000000      14.31891232      17.02500000        5
Al       2.86378246      14.31891232      17.02500000        5
Al       5.72756493      14.31891232      17.02500000        5
Al       8.59134739      14.31891232      17.02500000        5
Al      11.45512986      14.31891232      17.02500000        5
Al      14.31891232      14.31891232      17.02500000        5
Al      17.18269478      14.31891232      17.02500000        5
Al       0.00000000      17.18269478      17.02500000        5
Al       2.86378246      17.18269478      17.02500000        5
Al       5.72756493      17.18269478      17.02500000        5
Al       8.59134739      17.18269478      17.02500000        5
Al      11.45512986      17.18269478      17.02500000        5
Al      14.31891232      17.18269478      17.02500000        5
Al      17.18269478      17.18269478      17.02500000        5
Al       1.43193115       1.43193115      19.03297881        4
Al       4.29579269       1.43191706      19.03351299        4
Al       7.15945957       1.43185083      19.03390080        4
Al      10.02323862       1.43172747      19.03401939        4
Al      12.88701767       1.43185083      19.03390080        4
Al      15.75068456       1.43191706      19.03351299        4
Al      18.61454610       1.43193115      19.03297881        4
Al       1.43191706       4.29579269      19.03351299        4
Al       4.29530978       4.29530978      19.03349318        4
Al       7.15948171       4.29455105      19.03381221        4
Al      10.02323862       4.29414549      19.03347105        4
Al      12.88699554       4.29455105      19.03381221        4
Al      15.75116747       4.29530978      19.03349318        4
Al      18.61456019       4.29579269      19.03351299        4
Al       1.43185083       7.15945957      19.03390080        4
Al       4.29455105       7.15948171      19.03381221        4
Al       7.15820478       7.15820478      19.03338406        4
Al      10.02323862       7.15752111      19.03207403        4
Al      12.88827247       7.15820478      19.03338406        4
Al      15.75192620       7.15948171      19.03381221        4
Al      18.61462642       7.15945957      19.03390080        4
Al       1.43172747      10.02323862      19.03401939        4
Al       4.29414549      10.02323862      19.03347105        4
Al       7.15752111      10.02323862      19.03207403        4
Al      10.02323862      10.02323862      19.03103174        4
Al      12.88895614      10.02323862      19.03207403        4
Al      15.75233176      10.02323862      19.03347105        4
Al      18.61474977      10.02323862      19.03401939        4
Al       1.43185083      12.88701767      19.03390080        4
Al       4.29455105      12.88699554      19.03381221        4
Al       7.15820478      12.88827247      19.03338406        4
Al      10.02323862      12.88895614      19.03207403        4
Al      12.88827247      12.88827247      19.03338406        4
Al      15.75192620      12.88699554      19.03381221        4
Al      18.61462642      12.88701767      19.03390080        4
Al       1.43191706      15.75068456      19.03351299        4
Al       4.29530978      15.75116747      19.03349318        4
Al       7.15948171      15.75192620      19.03381221        4
Al      10.02323862      15.75233176      19.03347105        4
Al      12.88699554      15.75192620      19.03381221        4
Al      15.75116747      15.75116747      19.03349318        4
Al      18.61456019      15.75068456      19.03351299        4
Al       1.43193115      18.61454610      19.03297881        4
Al       4.29579269      18.61456019      19.03351299        4
Al       7.15945957      18.61462642      19.03390080        4
Al      10.02323862      18.61474977      19.03401939        4
Al      12.88701767      18.61462642      19.03390080        4
Al      15.75068456      18.61456019      19.03351299        4
Al      18.61454610      18.61454610      19.03297881        4
Al       0.00000000       0.00000000      21.05905765        3
Al       2.86409001      -0.00000000      21.05950485        3
Al       5.72843644      -0.00000000      21.06088837        3
Al       8.59198647       0.00000000      21.06205634        3
Al      11.45449078       0.00000000      21.06205634        3
Al      14.31804080      -0.00000000      21.06088837        3
Al      17.18238724      -0.00000000      21.05950485        3
Al      -0.00000000       2.86409001      21.05950485        3
Al       2.86402766       2.86402766      21.06006018        3
Al       5.72826104       2.86336833      21.06143972        3
Al       8.59202115       2.86301778      21.06250759        3
Al      11.45445609       2.86301778      21.06250759        3
Al      14.31821620       2.86336833      21.06143972        3
Al      17.18244959       2.86402766      21.06006018        3
Al       0.00000000       5.72843644      21.06088837        3
Al       2.86336833       5.72826104      21.06143972        3
Al       5.72488420       5.72488420      21.05893142        3
Al       8.59131626       5.72427040      21.05921566        3
Al      11.45516099       5.72427040      21.05921566        3
Al      14.32159304       5.72488420      21.05893142        3
Al      17.18310891       5.72826104      21.06143972        3
Al      -0.00000000       8.59198647      21.06205634        3
Al       2.86301778       8.59202115      21.06250759        3
Al       5.72427040       8.59131626      21.05921566        3
Al       8.58951537       8.58951537      21.05521818        3
Al      11.45696188       8.58951537      21.05521818        3
Al      14.32220684       8.59131626      21.05921566        3
Al      17.18345947       8.59202115      21.06250759        3
Al       0.00000000      11.45449078      21.06205634        3
Al       2.86301778      11.45445609      21.06250759        3
Al       5.72427040      11.45516099      21.05921566        3
Al       8.58951537      11.45696188      21.05521818        3
Al      11.45696188      11.45696188      21.05521818        3
Al      14.32220684      11.45516099      21.05921566        3
Al      17.18345947      11.45445609      21.06250759        3
Al       0.00000000      14.31804080      21.06088837        3
Al       2.86336833      14.31821620      21.06143972        3
Al       5.72488420      14.32159304      21.05893142        3
Al       8.59131626      14.32220684      21.05921566        3
Al      11.45516099      14.32220684      21.05921566        3
Al      14.32159304      14.32159304      21.05893142        3
Al      17.18310891      14.31821620      21.06143972        3
Al      -0.00000000      17.18238724      21.05950485        3
Al       2.86402766      17.18244959      21.06006018        3
Al       5.72826104      17.18310891      21.06143972        3
Al       8.59202115      17.18345947      21.06250759        3
Al      11.45445609      17.18345947      21.06250759        3
Al      14.31821620      17.18310891      21.06143972        3
Al      17.18244959      17.18244959      21.06006018        3
Al       1.43198460       1.43198460      23.06651994        2
Al       4.29609364       1.43187198      23.06765482        2
Al       7.16038954       1.43206103      23.07014314        2
Al      10.02323862       1.43323942      23.07165669        2
Al      12.88608771       1.43206103      23.07014314        2
Al      15.75038361       1.43187198      23.06765482        2
Al      18.61449265       1.43198460      23.06651994        2
Al       1.43187198       4.29609364      23.06765482        2
Al       4.29566763       4.29566763      23.06915085        2
Al       7.16107534       4.29503454      23.07259930        2
Al      10.02323862       4.29904010      23.07457260        2
Al      12.88540190       4.29503454      23.07259930        2
Al      15.75080962       4.29566763      23.06915085        2
Al      18.61460526       4.29609364      23.06765482        2
Al       1.43206103       7.16038954      23.07014314        2
Al       4.29503454       7.16107534      23.07259930        2
Al       7.14910446       7.14910446      23.05701484        2
Al      10.02323862       7.15691511      23.06400932        2
Al      12.89737279       7.14910446      23.05701484        2
Al      15.75144271       7.16107534      23.07259930        2
Al      18.61441622       7.16038954      23.07014314        2
Al       1.43323942      10.02323862      23.07165669        2
Al       4.29904010      10.02323862      23.07457260        2
Al       7.15691511      10.02323862      23.06400932        2
Al      10.02323862      10.02323862      23.05886060        2
Al      12.88956214      10.02323862      23.06400932        2
Al      15.74743715      10.02323862      23.07457260        2
Al      18.61323783      10.02323862      23.07165669        2
Al       1.43206103      12.88608771      23.07014314        2
Al       4.29503454      12.88540190      23.07259930        2
Al       7.14910446      12.89737279      23.05701484        2
Al      10.02323862      12.88956214      23.06400932        2
Al      12.89737279      12.89737279      23.05701484        2
Al      15.75144271      12.88540190      23.07259930        2
Al      18.61441622      12.88608771      23.07014314        2
Al       1.43187198      15.75038361      23.06765482        2
Al       4.29566763      15.75080962      23.06915085        2
Al       7.16107534      15.75144271      23.07259930        2
Al      10.02323862      15.74743715      23.07457260        2
Al      12.88540190      15.75144271      23.07259930        2
Al      15.75080962      15.75080962      23.06915085        2
Al      18.61460526      15.75038361      23.06765482        2
Al       1.43198460      18.61449265      23.06651994        2
Al       4.29609364      18.61460526      23.06765482        2
Al       7.16038954      18.61441622      23.07014314        2
Al      10.02323862      18.61323783      23.07165669        2
Al      12.88608771      18.61441622      23.07014314        2
Al      15.75038361      18.61460526      23.06765482        2
Al      18.61449265      18.61449265      23.06651994        2
Al       0.00000000      -0.00000000      25.08002196        1
Al       2.86328958       0.00000000      25.08057613        1
Al       5.72703345       0.00000000      25.08208909        1
Al       8.59125222      -0.00000000      25.08401527        1
Al      11.45522503      -0.00000000      25.08401527        1
Al      14.31944379       0.00000000      25.08208909        1
Al      17.18318767      -0.00000000      25.08057613        1
Al       0.00000000       2.86328958      25.08057613        1
Al       2.86309963       2.86309963      25.08136205        1
Al       5.72665179       2.86316816      25.08340156        1
Al       8.59117728       2.86708286      25.08613362        1
Al      11.45529997       2.86708286      25.08613362        1
Al      14.31982546       2.86316816      25.08340156        1
Al      17.18337761       2.86309963      25.08136205        1
Al       0.00000000       5.72703345      25.08208909        1
Al       2.86316816       5.72665179      25.08340156        1
Al       5.72706788       5.72706788      25.08482786        1
Al       8.59394207       5.73729961      25.09534000        1
Al      11.45253518       5.73729961      25.09534000        1
Al      14.31940936       5.72706788      25.08482786        1
Al      17.18330909       5.72665179      25.08340156        1
Al      -0.00000000       8.59125222      25.08401527        1
Al       2.86708286       8.59117728      25.08613362        1
Al       5.73729961       8.59394207      25.09534000        1
Al       8.57099834       8.57099834      25.03831011        1
Al      11.47547890       8.57099834      25.03831011        1
Al      14.30917764       8.59394207      25.09534000        1
Al      17.17939439       8.59117728      25.08613362        1
Al      -0.00000000      11.45522503      25.08401527        1
Al       2.86708286      11.45529997      25.08613362        1
Al       5.73729961      11.45253518      25.09534000        1
Al       8.57099834      11.47547890      25.03831011        1
Al      11.47547890      11.47547890      25.03831011        1
Al      14.30917764      11.45253518      25.09534000        1
Al      17.17939439      11.45529997      25.08613362        1
Al       0.00000000      14.31944379      25.08208909        1
Al       2.86316816      14.31982546      25.08340156        1
Al       5.72706788      14.31940936      25.08482786        1
Al       8.59394207      14.30917764      25.09534000        1
Al      11.45253518      14.30917764      25.09534000        1
Al      14.31940936      14.31940936      25.08482786        1
Al      17.18330909      14.31982546      25.08340156        1
Al       0.00000000      17.18318767      25.08057613        1
Al       2.86309963      17.18337761      25.08136205        1
Al       5.72665179      17.18330909      25.08340156        1
Al       8.59117728      17.17939439      25.08613362        1
Al      11.45529997      17.17939439      25.08613362        1
Al      14.31982546      17.18330909      25.08340156        1
Al      17.18337761      17.18337761      25.08136205        1
Al      10.02323862      10.02323862      26.92602869        0
295
Lattice="20.046477246638624 0.0 0.0 0.0 20.046477246638624 0.0 0.0 0.0 40.125" Properties=species:S:1:pos:R:3:tags:I:1 energy=-943.3089128593829 pbc="T T F"
Al       1.43189123       1.43189123      15.00000000        6
Al       4.29567370       1.43189123      15.00000000        6
Al       7.15945616       1.43189123      15.00000000        6
Al      10.02323862       1.43189123      15.00000000        6
Al      12.88702109       1.43189123      15.00000000        6
Al      15.75080355       1.43189123      15.00000000        6
Al      18.61458601       1.43189123      15.00000000        6
Al       1.43189123       4.29567370      15.00000000        6
Al       4.29567370       4.29567370      15.00000000        6
Al       7.15945616       4.29567370      15.00000000        6
Al      10.02323862       4.29567370      15.00000000        6
Al      12.88702109       4.29567370      15.00000000        6
Al      15.75080355       4.29567370      15.00000000        6
Al      18.61458601       4.29567370      15.00000000        6
Al       1.43189123       7.15945616      15.00000000        6
Al       4.29567370       7.15945616      15.00000000        6
Al       7.15945616       7.15945616      15.00000000        6
Al      10.02323862       7.15945616      15.00000000        6
Al      12.88702109       7.15945616      15.00000000        6
Al      15.75080355       7.15945616      15.00000000        6
Al      18.61458601       7.15945616      15.00000000        6
Al       1.43189123      10.02323862      15.00000000        6
Al       4.29567370      10.02323862      15.00000000        6
Al       7.15945616      10.02323862      15.00000000        6
Al      10.02323862      10.02323862      15.00000000        6
Al      12.88702109      10.02323862      15.00000000        6
Al      15.75080355      10.02323862      15.00000000        6
Al      18.61458601      10.02323862      15.00000000        6
Al       1.43189123      12.88702109      15.00000000        6
Al       4.29567370      12.88702109      15.00000000        6
Al       7.15945616      12.88702109      15.00000000        6
Al      10.02323862      12.88702109      15.00000000        6
Al      12.88702109      12.88702109      15.00000000        6
Al      15.75080355      12.88702109      15.00000000        6
Al      18.61458601      12.88702109      15.00000000        6
Al       1.43189123      15.75080355      15.00000000        6
Al       4.29567370      15.75080355      15.00000000        6
Al       7.15945616      15.75080355      15.00000000        6
Al      10.02323862      15.75080355      15.00000000        6
Al      12.88702109      15.75080355      15.00000000        6
Al      15.75080355      15.75080355      15.00000000        6
Al      18.61458601      15.75080355      15.00000000        6
Al       1.43189123      18.61458601      15.00000000        6
Al       4.29567370      18.61458601      15.00000000        6
Al       7.15945616      18.61458601      15.00000000        6
Al      10.02323862      18.61458601      15.00000000        6
Al      12.88702109      18.61458601      15.00000000        6
Al      15.75080355      18.61458601      15.00000000        6
Al      18.61458601      18.61458601      15.00000000        6
Al       0.00000000       0.00000000      17.02500000        5
Al       2.86378246       0.00000000      17.02500000        5
Al       5.72756493       0.00000000      17.02500000        5
Al       8.59134739       0.00000000      17.02500000        5
Al      11.45512986       0.00000000      17.02500000        5
Al      14.31891232       0.00000000      17.02500000        5
Al      17.18269478       0.00000000      17.02500000        5
Al       0.00000000       2.86378246      17.02500000        5
Al       2.86378246       2.86378246      17.02500000        5
Al       5.72756493       2.86378246      17.02500000        5
Al       8.59134739       2.86378246      17.02500000        5
Al      11.45512986       2.86378246      17.02500000        5
Al      14.31891232       2.86378246      17.02500000        5
Al      17.18269478       2.86378246      17.02500000        5
Al       0.00000000       5.72756493      17.02500000        5
Al       2.86378246       5.72756493      17.02500000        5
Al       5.72756493       5.72756493      17.02500000        5
Al       8.59134739       5.72756493      17.02500000        5
Al      11.45512986       5.72756493      17.02500000        5
Al      14.31891232       5.72756493      17.02500000        5
Al      17.18269478       5.72756493      17.02500000        5
Al       0.00000000       8.59134739      17.02500000        5
Al       2.86378246       8.59134739      17.02500000        5
Al       5.72756493       8.59134739      17.02500000        5
Al       8.59134739       8.59134739      17.02500000        5
Al      11.45512986       8.59134739      17.02500000        5
Al      14.31891232       8.59134739      17.02500000        5
Al      17.18269478       8.59134739      17.02500000        5
Al       0.00000000      11.45512986      17.02500000        5
Al       2.86378246      11.45512986      17.02500000        5
Al       5.72756493      11.45512986      17.02500000        5
Al       8.59134739      11.45512986      17.02500000        5
Al      11.45512986      11.45512986      17.02500000        5
Al      14.31891232      11.45512986      17.02500000        5
Al      17.18269478      11.45512986      17.02500000        5
Al       0.00000000      14.31891232      17.02500000        5
Al       2.86378246      14.31891232      17.02500000        5
Al       5.72756493      14.31891232      17.02500000        5
Al       8.59134739      14.31891232      17.02500000        5
Al      11.45512986      14.31891232      17.02500000        5
Al      14.31891232      14.31891232      17.02500000        5
Al      17.18269478      14.31891232      17.02500000        5
Al       0.00000000      17.18269478      17.02500000        5
Al       2.86378246      17.18269478      17.02500000        5
Al       5.72756493      17.18269478      17.02500000        5
Al       8.59134739      17.18269478      17.02500000        5
Al      11.45512986      17.18269478      17.02500000        5
Al      14.31891232      17.18269478      17.02500000        5
Al      17.18269478      17.18269478      17.02500000        5
Al       1.43251996       1.43257086      19.03123206        4
Al       4.29712158       1.43305852      19.03137410        4
Al       7.16143442       1.43194521      19.03114695        4
Al      10.02547827       1.43222592      19.03146396        4
Al      12.88962376       1.43325407      19.03184083        4
Al      15.75269258       1.43293826      19.03194521        4
Al      18.61586258       1.43294847      19.03192471        4
Al       1.43300697       4.29717249      19.03137359        4
Al       4.29725381       4.29730511      19.03046700        4
Al       7.16209328       4.29610137      19.02995919        4
Al      10.02640528       4.29575360      19.03064971        4
Al      12.89069789       4.29669841      19.03137717        4
Al      15.75371581       4.29691695      19.03260512        4
Al      18.61685338       4.29701336      19.03279840        4
Al       1.43189399       7.16148560      19.03114661        4
Al       4.29605055       7.16214447      19.02995921        4
Al       7.16072021       7.16077065      19.02824474        4
Al      10.02564908       7.16005770      19.02953509        4
Al      12.89013767       7.15995288      19.03182502        4
Al      15.75307114       7.15973353      19.03302386        4
Al      18.61617233       7.16019538      19.03322762        4
Al       1.43217462      10.02552968      19.03146384        4
Al       4.29570219      10.02645650      19.03064941        4
Al       7.16000652      10.02569977      19.02953519        4
Al      10.02502016      10.02507159      19.02957474        4
Al      12.88952853      10.02403744      19.03137391        4
Al      15.75210868      10.02298158      19.03282786        4
Al      18.61560744      10.02322970      19.03301202        4
Al       1.43320278      12.88967533      19.03184085        4
Al       4.29664669      12.89074932      19.03137685        4
Al       7.15990117      12.89018915      19.03182488        4
Al      10.02398608      12.88958040      19.03137381        4
Al      12.88798714      12.88803845      19.03103724        4
Al      15.75147219      12.88676403      19.03216355        4
Al      18.61584509      12.88684248      19.03224639        4
Al       1.43288732      15.75274404      19.03194530        4
Al       4.29686587      15.75376724      19.03260535        4
Al       7.15968233      15.75312258      19.03302415        4
Al      10.02293031      15.75216048      19.03282789        4
Al      12.88671275      15.75152349      19.03216362        4
Al      15.75039591      15.75044704      19.03197928        4
Al      18.61482885      15.75080845      19.03157359        4
Al       1.43289765      18.61591381      19.03192482        4
Al       4.29696249      18.61690484      19.03279866        4
Al       7.16014412      18.61622369      19.03322789        4
Al      10.02317824      18.61565900      19.03301219        4
Al      12.88679102      18.61589633      19.03224649        4
Al      15.75075720      18.61487981      19.03157358        4
Al      18.61494862      18.61499958      19.03135654        4
Al       0.00200049       0.00210261      21.05652629        3
Al       2.86678180       0.00415313      21.05822107        3
Al       5.73064737       0.00489839      21.05976290        3
Al       8.59290696       0.00280316      21.05990087        3
Al      11.45618800       0.00305865      21.05870040        3
Al      14.32039303       0.00184906      21.05716138        3
Al      17.18430146       0.00068661      21.05644198        3
Al       0.00405030       2.86688390      21.05822075        3
Al       2.86499551       2.86509794      21.05380869        3
Al       5.73223036       2.86516680      21.05382029        3
Al       8.59534238       2.86374491      21.05433413        3
Al      11.46200537       2.86361596      21.05507651        3
Al      14.32421336       2.86623192      21.05842300        3
Al      17.18734275       2.86543803      21.05817574        3
Al       0.00479484       5.73074979      21.05976216        3
Al       2.86506333       5.73233252      21.05381949        3
Al       5.73035926       5.73046203      21.05180224        3
Al       8.59654705       5.73004290      21.05167842        3
Al      11.46191326       5.72999821      21.05512609        3
Al      14.32329891       5.72886151      21.05958645        3
Al      17.18752327       5.72859199      21.05968236        3
Al       0.00269953       8.59300979      21.05990016        3
Al       2.86364155       8.59544498      21.05433378        3
Al       5.72994010       8.59665013      21.05167823        3
Al       8.59615568       8.59625802      21.05099930        3
Al      11.46097197       8.59350870      21.05362639        3
Al      14.32271626       8.59178355      21.05959823        3
Al      17.18612346       8.59130116      21.06001477        3
Al       0.00295510      11.45629100      21.05870006        3