295
Lattice="20.046477246638624 0.0 0.0 0.0 20.046477246638624 0.0 0.0 0.0 40.125" Properties=species:S:1:pos:R:3:tags:I:1 energy=-943.3094314156258 free_energy=-943.3094314156258 pbc="T T F"
Al       1.43189123       1.43189123      15.00000000        6
Al       4.29567370       1.43189123      15.00000000        6
Al       7.15945616       1.43189123      15.00000000        6
Al      10.02323862       1.43189123      15.00000000        6
Al      12.88702109       1.43189123      15.00000000        6
Al      15.75080355       1.43189123      15.00000000        6
Al      18.61458601       1.43189123      15.00000000        6
Al       1.43189123       4.29567370      15.00000000        6
Al       4.29567370       4.29567370      15.00000000        6
Al       7.15945616       4.29567370      15.00000000        6
Al      10.02323862       4.29567370      15.00000000        6
Al      12.88702109       4.29567370      15.00000000        6
Al      15.75080355       4.29567370      15.00000000        6
Al      18.61458601       4.29567370      15.00000000        6
Al       1.43189123       7.15945616      15.00000000        6
Al       4.29567370       7.15945616      15.00000000        6
Al       7.15945616       7.15945616      15.00000000        6
Al      10.02323862       7.15945616      15.00000000        6
Al      12.88702109       7.15945616      15.00000000        6
Al      15.75080355       7.15945616      15.00000000        6
Al      18.61458601       7.15945616      15.00000000        6
Al       1.43189123      10.02323862      15.00000000        6
Al       4.29567370      10.02323862      15.00000000        6
Al       7.15945616      10.02323862      15.00000000        6
Al      10.02323862      10.02323862      15.00000000        6
Al      12.88702109      10.02323862      15.00000000        6
Al      15.75080355      10.02323862      15.00000000        6
Al      18.61458601      10.02323862      15.00000000        6
Al       1.43189123      12.88702109      15.00000000        6
Al       4.29567370      12.88702109      15.00000000        6
Al       7.15945616      12.88702109      15.00000000        6
Al      10.02323862      12.88702109      15.00000000        6
Al      12.88702109      12.88702109      15.00000000        6
Al      15.75080355      12.88702109      15.00000000        6
Al      18.61458601      12.88702109      15.00000000        6
Al       1.43189123      15.75080355      15.00000000        6
Al       4.29567370      15.75080355      15.00000000        6
Al       7.15945616      15.75080355      15.00000000        6
Al      10.02323862      15.75080355      15.00000000        6
Al      12.88702109      15.75080355      15.00000000        6
Al      15.75080355      15.75080355      15.00000000        6
Al      18.61458601      15.75080355      15.00000000        6
Al       1.43189123      18.61458601      15.00000000        6
Al       4.29567370      18.61458601      15.00000000        6
Al       7.15945616      18.61458601      15.00000000        6
Al      10.02323862      18.61458601      15.00000000        6
Al      12.88702109      18.61458601      15.00000000        6
Al      15.75080355      18.61458601      15.00000000        6
Al      18.61458601      18.61458601      15.00000000        6
Al       0.00000000       0.00000000      17.02500000        5
Al       2.86378246       0.00000000      17.02500000        5
Al       5.72756493       0.00000000      17.02500000        5
Al       8.59134739       0.00000000      17.02500000        5
Al      11.45512986       0.00000000      17.02500000        5
Al      14.31891232       0.00000000      17.02500000        5
Al      17.18269478       0.00000000      17.02500000        5
Al       0.00000000       2.86378246      17.02500000        5
Al       2.86378246       2.86378246      17.02500000        5
Al       5.72756493       2.86378246      17.02500000        5
Al       8.59134739       2.86378246      17.02500000        5
Al      11.45512986       2.86378246      17.02500000        5
Al      14.31891232       2.86378246      17.02500000        5
Al      17.18269478       2.86378246      17.02500000        5
Al       0.00000000       5.72756493      17.02500000        5
Al       2.86378246       5.72756493      17.02500000        5
Al       5.72756493       5.72756493      17.02500000        5
Al       8.59134739       5.72756493      17.02500000        5
Al      11.45512986       5.72756493      17.02500000        5
Al      14.31891232       5.72756493      17.02500000        5
Al      17.18269478       5.72756493      17.02500000        5
Al       0.00000000       8.59134739      17.02500000        5
Al       2.86378246       8.59134739      17.02500000        5
Al       5.72756493       8.59134739      17.02500000        5
Al       8.59134739       8.59134739      17.02500000        5
Al      11.45512986       8.59134739      17.02500000        5
Al      14.31891232       8.59134739      17.02500000        5
Al      17.18269478       8.59134739      17.02500000        5
Al       0.00000000      11.45512986      17.02500000        5
Al       2.86378246      11.45512986      17.02500000        5
Al       5.72756493      11.45512986      17.02500000        5
Al       8.59134739      11.45512986      17.02500000        5
Al      11.45512986      11.45512986      17.02500000        5
Al      14.31891232      11.45512986      17.02500000        5
Al      17.18269478      11.45512986      17.02500000        5
Al       0.00000000      14.31891232      17.02500000        5
Al       2.86378246      14.31891232      17.02500000        5
Al       5.72756493      14.31891232      17.02500000        5
Al       8.59134739      14.31891232      17.02500000        5
Al      11.45512986      14.31891232      17.02500000        5
Al      14.31891232      14.31891232      17.02500000        5
Al      17.18269478      14.31891232      17.02500000        5
Al       0.00000000      17.18269478      17.02500000        5
Al       2.86378246      17.18269478      17.02500000        5
Al       5.72756493      17.18269478      17.02500000        5
Al       8.59134739      17.18269478      17.02500000        5
Al      11.45512986      17.18269478      17.02500000        5
Al      14.31891232      17.18269478      17.02500000        5
Al      17.18269478      17.18269478      17.02500000        5
Al       1.43197996       1.43197996      19.03227454        4
Al       4.29595991       1.43176338      19.03252127        4
Al       7.15979348       1.43157047      19.03286247        4
Al      10.02323862       1.43152720      19.03302831        4
Al      12.88668377       1.43157047      19.03286247        4
Al      15.75051733       1.43176338      19.03252127        4
Al      18.61449729       1.43197996      19.03227454        4
Al       1.43176338       4.29595991      19.03252127        4
Al       4.29508697       4.29508697      19.03205216        4
Al       7.15925919       4.29435626      19.03193256        4
Al      10.02323862       4.29416844      19.03179625        4
Al      12.88721806       4.29435626      19.03193256        4
Al      15.75139027       4.29508697      19.03205216        4
Al      18.61471387       4.29595991      19.03252127        4
Al       1.43157047       7.15979348      19.03286247        4
Al       4.29435626       7.15925919      19.03193256        4
Al       7.15829551       7.15829551      19.03108182        4
Al      10.02323862       7.15815262      19.03051952        4
Al      12.88818173       7.15829551      19.03108182        4
Al      15.75212099       7.15925919      19.03193256        4
Al      18.61490678       7.15979348      19.03286247        4
Al       1.43152720      10.02323862      19.03302831        4
Al       4.29416844      10.02323862      19.03179625        4
Al       7.15815262      10.02323862      19.03051952        4
Al      10.02323862      10.02323862      19.03020831        4
Al      12.88832463      10.02323862      19.03051952        4
Al      15.75230881      10.02323862      19.03179625        4
Al      18.61495005      10.02323862      19.03302831        4
Al       1.43157047      12.88668377      19.03286247        4
Al       4.29435626      12.88721806      19.03193256        4
Al       7.15829551      12.88818173      19.03108182        4
Al      10.02323862      12.88832463      19.03051952        4
Al      12.88818173      12.88818173      19.03108182        4
Al      15.75212099      12.88721806      19.03193256        4
Al      18.61490678      12.88668377      19.03286247        4
Al       1.43176338      15.75051733      19.03252127        4
Al       4.29508697      15.75139027      19.03205216        4
Al       7.15925919      15.75212099      19.03193256        4
Al      10.02323862      15.75230881      19.03179625        4
Al      12.88721806      15.75212099      19.03193256        4
Al      15.75139027      15.75139027      19.03205216        4
Al      18.61471387      15.75051733      19.03252127        4
Al       1.43197996      18.61449729      19.03227454        4
Al       4.29595991      18.61471387      19.03252127        4
Al       7.15979348      18.61490678      19.03286247        4
Al      10.02323862      18.61495005      19.03302831        4
Al      12.88668377      18.61490678      19.03286247        4
Al      15.75051733      18.61471387      19.03252127        4
Al      18.61449729      18.61449729      19.03227454        4
Al       0.00000000       0.00000000      21.05771697        3
Al       2.86407631       0.00000000      21.05798995        3
Al       5.72822973       0.00000000      21.05892747        3
Al       8.59180957       0.00000000      21.05995668        3
Al      11.45466768       0.00000000      21.05995668        3
Al      14.31824752       0.00000000      21.05892747        3
Al      17.18240093       0.00000000      21.05798995        3
Al       0.00000000       2.86407631      21.05798995        3
Al       2.86394501       2.86394501      21.05822930        3
Al       5.72817962       2.86325434      21.05907938        3
Al       8.59185743       2.86343515      21.05992182        3
Al      11.45461981       2.86343515      21.05992182        3
Al      14.31829763       2.86325434      21.05907938        3
Al      17.18253224       2.86394501      21.05822930        3
Al       0.00000000       5.72822973      21.05892747        3
Al       2.86325434       5.72817962      21.05907938        3
Al       5.72476417       5.72476417      21.05566606        3
Al       8.59144818       5.72443640      21.05559821        3
Al      11.45502907       5.72443640      21.05559821        3
Al      14.32171308       5.72476417      21.05566606        3
Al      17.18322291       5.72817962      21.05907938        3
Al       0.00000000       8.59180957      21.05995668        3
Al       2.86343515       8.59185743      21.05992182        3
Al       5.72443640       8.59144818      21.05559821        3
Al       8.58960749       8.58960749      21.05252242        3
Al      11.45686976       8.58960749      21.05252242        3
Al      14.32204084       8.59144818      21.05559821        3
Al      17.18304210       8.59185743      21.05992182        3
Al       0.00000000      11.45466768      21.05995668        3
Al       2.86343515      11.45461981      21.05992182        3
Al       5.72443640      11.45502907      21.05559821        3
Al       8.58960749      11.45686976      21.05252242        3
Al      11.45686976      11.45686976      21.05252242        3
Al      14.32204084      11.45502907      21.05559821        3
Al      17.18304210      11.45461981      21.05992182        3
Al       0.00000000      14.31824752      21.05892747        3
Al       2.86325434      14.31829763      21.05907938        3
Al       5.72476417      14.32171308      21.05566606        3
Al       8.59144818      14.32204084      21.05559821        3
Al      11.45502907      14.32204084      21.05559821        3
Al      14.32171308      14.32171308      21.05566606        3
Al      17.18322291      14.31829763      21.05907938        3
Al       0.00000000      17.18240093      21.05798995        3
Al       2.86394501      17.18253224      21.05822930        3
Al       5.72817962      17.18322291      21.05907938        3
Al       8.59185743      17.18304210      21.05992182        3
Al      11.45461981      17.18304210      21.05992182        3
Al      14.31829763      17.18322291      21.05907938        3
Al      17.18253224      17.18253224      21.05822930        3
Al       1.43194857       1.43194857      23.06472429        2
Al       4.29594853       1.43191206      23.06539339        2
Al       7.16014201       1.43218229      23.06718400        2
Al      10.02323862       1.43298071      23.06834073        2
Al      12.88633524       1.43218229      23.06718400        2
Al      15.75052872       1.43191206      23.06539339        2
Al      18.61452868       1.43194857      23.06472429        2
Al       1.43191206       4.29594853      23.06539339        2
Al       4.29590881       4.29590881      23.06589555        2
Al       7.16140707       4.29534870      23.06875632        2
Al      10.02323862       4.29843431      23.07049782        2
Al      12.88507018       4.29534870      23.06875632        2
Al      15.75056844       4.29590881      23.06589555        2
Al      18.61456518       4.29594853      23.06539339        2
Al       1.43218229       7.16014201      23.06718400        2
Al       4.29534870       7.16140707      23.06875632        2
Al       7.14898300       7.14898300      23.05262979        2
Al      10.02323862       7.15601520      23.05978609        2
Al      12.89749425       7.14898300      23.05262979        2
Al      15.75112855       7.16140707      23.06875632        2
Al      18.61429495       7.16014201      23.06718400        2
Al       1.43298071      10.02323862      23.06834073        2
Al       4.29843431      10.02323862      23.07049782        2
Al       7.15601520      10.02323862      23.05978609        2
Al      10.02323862      10.02323862      23.05481008        2
Al      12.89046205      10.02323862      23.05978609        2
Al      15.74804293      10.02323862      23.07049782        2
Al      18.61349653      10.02323862      23.06834073        2
Al       1.43218229      12.88633524      23.06718400        2
Al       4.29534870      12.88507018      23.06875632        2
Al       7.14898300      12.89749425      23.05262979        2
Al      10.02323862      12.89046205      23.05978609        2
Al      12.89749425      12.89749425      23.05262979        2
Al      15.75112855      12.88507018      23.06875632        2
Al      18.61429495      12.88633524      23.06718400        2
Al       1.43191206      15.75052872      23.06539339        2
Al       4.29590881      15.75056844      23.06589555        2
Al       7.16140707      15.75112855      23.06875632        2
Al      10.02323862      15.74804293      23.07049782        2
Al      12.88507018      15.75112855      23.06875632        2
Al      15.75056844      15.75056844      23.06589555        2
Al      18.61456518      15.75052872      23.06539339        2
Al       1.43194857      18.61452868      23.06472429        2
Al       4.29594853      18.61456518      23.06539339        2
Al       7.16014201      18.61429495      23.06718400        2
Al      10.02323862      18.61349653      23.06834073        2
Al      12.88633524      18.61429495      23.06718400        2
Al      15.75052872      18.61456518      23.06539339        2
Al      18.61452868      18.61452868      23.06472429        2
Al      -0.00000000       0.00000000      25.07817364        1
Al       2.86362910       0.00000000      25.07848293        1
Al       5.72736900       0.00000000      25.07953602        1
Al       8.59131649       0.00000000      25.08088168        1
Al      11.45516076       0.00000000      25.08088168        1
Al      14.31910825       0.00000000      25.07953602        1
Al      17.18284815      -0.00000000      25.07848293        1
Al       0.00000000       2.86362910      25.07848293        1
Al       2.86353965       2.86353965      25.07875348        1
Al       5.72709459       2.86353406      25.07993400        1
Al       8.59127490       2.86691784      25.08233362        1
Al      11.45520234       2.86691784      25.08233362        1
Al      14.31938265       2.86353406      25.07993400        1
Al      17.18293760       2.86353965      25.07875348        1
Al       0.00000000       5.72736900      25.07953602        1
Al       2.86353406       5.72709459      25.07993400        1
Al       5.72738629       5.72738629      25.08061071        1
Al       8.59402116       5.73660759      25.09114907        1
Al      11.45245609       5.73660759      25.09114907        1
Al      14.31909096       5.72738629      25.08061071        1
Al      17.18294319       5.72709459      25.07993400        1
Al       0.00000000       8.59131649      25.08088168        1
Al       2.86691784       8.59127490      25.08233362        1
Al       5.73660759       8.59402116      25.09114907        1
Al       8.57073991       8.57073991      25.03249623        1
Al      11.47573734       8.57073991      25.03249623        1
Al      14.30986966       8.59402116      25.09114907        1
Al      17.17955941       8.59127490      25.08233362        1
Al       0.00000000      11.45516076      25.08088168        1
Al       2.86691784      11.45520234      25.08233362        1
Al       5.73660759      11.45245609      25.09114907        1
Al       8.57073991      11.47573734      25.03249623        1
Al      11.47573734      11.47573734      25.03249623        1
Al      14.30986966      11.45245609      25.09114907        1
Al      17.17955941      11.45520234      25.08233362        1
Al       0.00000000      14.31910825      25.07953602        1
Al       2.86353406      14.31938265      25.07993400        1
Al       5.72738629      14.31909096      25.08061071        1
Al       8.59402116      14.30986966      25.09114907        1
Al      11.45245609      14.30986966      25.09114907        1
Al      14.31909096      14.31909096      25.08061071        1
Al      17.18294319      14.31938265      25.07993400        1
Al       0.00000000      17.18284815      25.07848293        1
Al       2.86353965      17.18293760      25.07875348        1
Al       5.72709459      17.18294319      25.07993400        1
Al       8.59127490      17.17955941      25.08233362        1
Al      11.45520234      17.17955941      25.08233362        1
Al      14.31938265      17.18294319      25.07993400        1
Al      17.18293760      17.18293760      25.07875348        1
Al      10.02323862      10.02323862      26.91878905        0
295
Lattice="20.046477246638624 0.0 0.0 0.0 20.046477246638624 0.0 0.0 0.0 40.125" Properties=species:S:1:pos:R:3:tags:I:1:forces:R:3 energy=-943.0139395018214 free_energy=-943.0139395018214 stress="0.0016994730859417975 2.7344449042085736e-05 -8.109442177038177e-05 2.7344449042085736e-05 0.0016994731873982108 -8.108472296944566e-05 -8.109442177038177e-05 -8.108472296944566e-05 4.44645333569809e-05" pbc="T T F"
Al       1.43366847       1.43368105      15.00600151        6      -0.00048797      -0.00048782       0.00043122
Al       4.29685892       1.43554883      15.00789841        6       0.00013632       0.00059246       0.00031788
Al       7.15968446       1.43498848      15.00858793        6       0.00011990       0.00032047       0.00029108
Al      10.02275300       1.43205454      15.00759345        6       0.00044664       0.00041741       0.00040648
Al      12.88678392       1.42958867      15.00548073        6      -0.00058914       0.00084161       0.00033624
Al      15.75125778       1.42936714      15.00372192        6       0.00020349       0.00018931       0.00056917
Al      18.61581221       1.43107599      15.00398255        6       0.00095338      -0.00032854       0.00054096
Al       1.43553611       4.29687147      15.00789839        6       0.00059232       0.00013653       0.00031791
Al       4.29935670       4.29936940      15.01268680        6      -0.00049301      -0.00049282       0.00095695
Al       7.16101616       4.29967471      15.01579183        6       0.00087087       0.00006714       0.00024096
Al      10.02261802       4.29790799      15.01457710        6      -0.00110298      -0.00070496       0.00069924
Al      12.88554885       4.29583300      15.00996132        6      -0.00070449      -0.00093433       0.00144817
Al      15.75074795       4.29463163      15.00531563        6      -0.00153539      -0.00025596       0.00114623
Al      18.61642288       4.29501910      15.00440047        6       0.00137564      -0.00026358      -0.00011944
Al       1.43497568       7.15969695      15.00858785        6       0.00032034       0.00012023       0.00029108
Al       4.29966195       7.16102883      15.01579177        6       0.00006691       0.00087121       0.00024099
Al       7.16120356       7.16121632      15.02131198        6      -0.00012815      -0.00012782      -0.00176099
Al      10.02124330       7.15994397      15.02086225        6      -0.00122830      -0.00025394      -0.00066805
Al      12.88285000       7.15915071      15.01493920        6      -0.00108029      -0.00139412       0.00171145
Al      15.74801208       7.15886779      15.00776444        6      -0.00209771      -0.00157020       0.00136506
Al      18.61469478       7.15871721      15.00436603        6       0.00019044       0.00060460       0.00164894
Al       1.43204182      10.02276549      15.00759330        6       0.00041721       0.00044690       0.00040655
Al       4.29789530      10.02263072      15.01457700        6      -0.00070522      -0.00110281       0.00069928
Al       7.15993127      10.02125613      15.02086223        6      -0.00025428      -0.00122826      -0.00066809
Al      10.01959926      10.01961204      15.02179284        6      -0.00154466      -0.00154461       0.00017668
Al      12.88021150      10.01964827      15.01702312        6       0.00003143      -0.00063159       0.00128893
Al      15.74481350      10.02147142      15.00945731        6      -0.00260641      -0.00059022       0.00115673
Al      18.61110315      10.02265158      15.00461954        6       0.00087860      -0.00130288       0.00146175
Al       1.42957610      12.88679643      15.00548056        6       0.00084141      -0.00058887       0.00033634
Al       4.29582047      12.88556156      15.00996122        6      -0.00093462      -0.00070423       0.00144821
Al       7.15913817      12.88286283      15.01493919        6      -0.00139440      -0.00108013       0.00171139
Al      10.01963570      12.88022426      15.01702315        6      -0.00063186       0.00003165       0.00128888
Al      12.88059574      12.88060833      15.01452763        6      -0.00033942      -0.00033918       0.00086884
Al      15.74388578      12.88354304      15.00932338        6      -0.00127211       0.00025048       0.00053905
Al      18.60930918      12.88598833      15.00487707        6       0.00081639       0.00053495      -0.00036115
Al       1.42935468      15.75127031      15.00372180        6       0.00018909       0.00020377       0.00056920
Al       4.29461920      15.75076070      15.00531555        6      -0.00025616      -0.00153527       0.00114632
Al       7.15885540      15.74802490      15.00776444        6      -0.00157051      -0.00209748       0.00136514
Al      10.02145902      15.74482626      15.00945737        6      -0.00059053      -0.00260616       0.00115678
Al      12.88353061      15.74389839      15.00932343        6       0.00025025      -0.00127191       0.00053913
Al      15.74647572      15.74648814      15.00713340        6      -0.00093508      -0.00093476       0.00071361
Al      18.61061589      15.74962884      15.00423198        6       0.00023559       0.00043234       0.00056436
Al       1.43106351      18.61582479      15.00398253        6      -0.00032864       0.00095353       0.00054088
Al       4.29500668      18.61643561      15.00440048        6      -0.00026386       0.00137582      -0.00011950
Al       7.15870483      18.61470760      15.00436610        6       0.00060430       0.00019057       0.00164893
Al      10.02263919      18.61111590      15.00461969        6      -0.00130311       0.00087874       0.00146170
Al      12.88597594      18.60932176      15.00487721        6       0.00053463       0.00081660      -0.00036119
Al      15.74961645      18.61062835      15.00423206        6       0.00043206       0.00023580       0.00056438
Al      18.61360885      18.61362128      15.00372450        6      -0.00049167      -0.00049137       0.00126404
Al       0.00011798       0.00013065      17.01810725        5       0.00045380       0.00045405      -0.00125782
Al       2.86364859       0.00219146      17.01874576        5      -0.00048286       0.00007534      -0.00033704
Al       5.72697153       0.00190513      17.01854686        5       0.00007528      -0.00076404       0.00107190
Al       8.59104556      -0.00132879      17.01793978        5      -0.00005773      -0.00112850       0.00046210
Al      11.45543684      -0.00432120      17.01702496        5       0.00001478       0.00037451       0.00102156
Al      14.31948310      -0.00443525      17.01645454        5       0.00003197      -0.00033546       0.00123224
Al      17.18305423      -0.00248306      17.01699475        5      -0.00003194       0.00001038      -0.00006059
Al       0.00217866       2.86366130      17.01874577        5       0.00007512      -0.00048272      -0.00033704
Al       2.86588701       2.86589983      17.02299419        5       0.00177853       0.00177875      -0.00140762
Al       5.72895012       2.86689357      17.02553244        5       0.00022278       0.00044215      -0.00043252
Al       8.59179237       2.86445300      17.02514846        5       0.00094607       0.00145399       0.00034288
Al      11.45542519       2.86183044      17.02173425        5       0.00037681       0.00108926       0.00147461
Al      14.32008628       2.86056579      17.01793888        5      -0.00132936       0.00120183       0.00114476
Al      17.18499331       2.86178611      17.01627793        5      -0.00136361      -0.00196594       0.00155283
Al       0.00189220       5.72698423      17.01854684        5      -0.00076420       0.00007535       0.00107184
Al       2.86688062       5.72896297      17.02553241        5       0.00044206       0.00022282      -0.00043252
Al       5.73057150       5.73058449      17.03273380        5      -0.00041206      -0.00041208      -0.00073440
Al       8.59158087       5.72952642      17.03517026        5       0.00060309      -0.00288414      -0.00068311
Al      11.45287547       5.72716282      17.03052809        5       0.00128125      -0.00117577       0.00114684
Al      14.31770514       5.72552471      17.02229940        5      -0.00078959      -0.00032848       0.00126192
Al      17.18384898       5.72585804      17.01710088        5      -0.00141637      -0.00094009       0.00115797
Al      -0.00134176       8.59105821      17.01793968        5      -0.00112856      -0.00005753       0.00046203
Al       2.86444003       8.59180519      17.02514837        5       0.00145395       0.00094620       0.00034286
Al       5.72951344       8.59159386      17.03517023        5      -0.00288426       0.00060316      -0.00068322
Al       8.58970944       8.58972246      17.04055385        5       0.00064423       0.00064417      -0.00099208
Al      11.44968087       8.58833124      17.03687606        5       0.00125567      -0.00033010       0.00038166
Al      14.31437224       8.58891052      17.02662760        5      -0.00260736      -0.00032763       0.00054230
Al      17.18017745       8.58989848      17.01849298        5      -0.00027843       0.00040490       0.00022917
Al      -0.00433405      11.45544948      17.01702481        5       0.00037439       0.00001493       0.00102158
Al       2.86181759      11.45543799      17.02173412        5       0.00108911       0.00037695       0.00147463
Al       5.72714995      11.45288843      17.03052804        5      -0.00117590       0.00128134       0.00114686
Al       8.58831834      11.44969386      17.03687606        5      -0.00033015       0.00125583       0.00038176
Al      11.44856520      11.44857810      17.03490142        5      -0.00027097      -0.00027089       0.00262153
Al      14.31179508      11.45106904      17.02764935        5      -0.00187323      -0.00036998       0.00078322
Al      17.17767314      11.45375222      17.01931235        5      -0.00196999      -0.00038290       0.00139734
Al      -0.00444795      14.31949573      17.01645444        5      -0.00033560       0.00003213       0.00123218
Al       2.86055307      14.32009910      17.01793877        5       0.00120173      -0.00132930       0.00114472
Al       5.72551200      14.31771809      17.02229937        5      -0.00032866      -0.00078944       0.00126182
Al       8.58889780      14.31438521      17.02662762        5      -0.00032770      -0.00260721       0.00054233
Al      11.45105632      14.31180794      17.02764939        5      -0.00037009      -0.00187308       0.00078326
Al      14.31299195      14.31300462      17.02519479        5      -0.00145372      -0.00145344      -0.00011773
Al      17.17782853      14.31669401      17.01940735        5      -0.00128464       0.00084353       0.00015177
Al      -0.00249570      17.18306687      17.01699469        5       0.00001027      -0.00003174      -0.00006052
Al       2.86177344      17.18500613      17.01627785        5      -0.00196603      -0.00136355       0.00155290
Al       5.72584540      17.18386193      17.01710088        5      -0.00094022      -0.00141634       0.00115796