5
Properties=species:S:1:pos:R:3:energies:R:1:forces:R:3 energy=-0.03356562750297784 free_energy=-0.03356562750297784 pbc="F F F"
X        0.00000000       0.00000000       0.00000000      -0.00617867       0.03373101       0.04171919       0.02315124
X        2.77146735       0.00000000       0.00000000      -0.00352576      -0.02299517       0.02770932       0.02111532
X        0.45602871       2.51715109       0.00000000      -0.01045807       0.05065415      -0.03793699       0.02413611
X        1.25660734       0.49540088       2.26901436      -0.00352576       0.00220761       0.00257058      -0.04160480
X        2.67393119       2.46789434       0.93428820      -0.00987737      -0.06359761      -0.03406209      -0.02679788
