38
Properties=species:S:1:pos:R:3:energies:R:1:forces:R:3 energy=-3.4731241157371944 free_energy=-3.4731241157371944 pbc="F F F"
X        0.00000000       0.00000000       0.00000000      -0.11766627       0.07717727      -0.01340360       0.22341668
X        2.14767818       0.00000000       0.00000000      -0.09177488      -0.01392177       0.04990444       0.16892042
X       -0.18682141       1.97615876       0.00000000      -0.10512273      -0.02899921      -0.04261277       0.17009188
X        0.41512018      -1.51450595       0.98298725      -0.11114127      -0.06707023       0.25535860       0.03210870
X        2.71662985       1.90083683       0.03424306      -0.08737189       0.04097893      -0.12472325       0.17921046
X       -1.74436011       0.90597297       0.92987959      -0.09221655       0.16595334       0.12333850       0.07415706
X        2.71294400      -1.37918231       1.33705537      -0.09146750      -0.10302670       0.11974158       0.08020502
X        0.89095954       3.54880793       0.36357811      -0.09165819      -0.04334450      -0.12080013       0.14247815
X       -1.20015368      -1.36728617       2.10823694      -0.08526762       0.15104483       0.06508215       0.07318239
X        4.08540516       0.98488201       1.16877948      -0.08539043      -0.14016893       0.10076715       0.07672117
X       -1.67638287       2.88398349       1.39552771      -0.08983085       0.08533396      -0.15113135       0.09927275
X        1.50822672      -2.33037179       2.72402885      -0.08715435       0.06402115       0.17926111       0.00930145
X        2.83650770       3.73632359       1.14185562      -0.08769813      -0.14646426      -0.07401690       0.08782010
X       -2.43374715       0.23468212       2.79954555      -0.08786912       0.17792925      -0.01136203       0.03097094
X        4.15858481      -0.62639538       2.61574841      -0.08773901      -0.11914854       0.12886759       0.01313970
X       -0.20647338       4.44969779       1.84168826      -0.08741331       0.02342719      -0.15460805       0.07080480
X       -0.38626485      -2.05519528       3.84062043      -0.08698115       0.08865731       0.14109284      -0.02204229
X        4.38327331       2.62637969       2.31266300      -0.08660679      -0.15466560      -0.04637734       0.04267524
X       -2.44031559       2.44695591       3.20814654      -0.08643556       0.15688970      -0.05596917       0.00564892
X        2.90692857      -1.81760861       4.07280634      -0.08643556      -0.08676137       0.13800996      -0.03470665
X        1.91305228       4.82295391       2.55274433      -0.08660679      -0.02374301      -0.16233694       0.03124849
X       -1.88299327      -0.51606174       4.57394258      -0.08698115       0.11828911       0.10100687      -0.06370611
X        4.72223629       0.91661492       3.76149648      -0.08741331      -0.17048345      -0.01742816      -0.00987193
X       -1.13402000       4.24820518       3.60531532      -0.08773901       0.13974861      -0.10476826      -0.02167535
X        1.00120098      -1.82709776       5.26832527      -0.08786912      -0.05841117       0.15118224      -0.08049334
X        3.64629034       3.93115790       3.64628672      -0.08769813      -0.06567225      -0.17415453       0.00007882
X       -2.17511289       1.63367624       5.02659021      -0.08715435       0.14845879       0.06931208      -0.09734267
X        3.73830110      -0.38834179       5.22440930      -0.08632059      -0.18131350       0.01213391      -0.06309111
X        0.83765735       4.85791692       4.26564038      -0.08539043       0.09759536      -0.15057255      -0.05908078
X       -0.51114314      -0.55123055       6.07513441      -0.08526762       0.00394558       0.11623596      -0.13740278
X        4.14125774       2.42168751       5.02561340      -0.08894686      -0.13238178      -0.08822165      -0.06641813
X       -1.10277263       3.34634041       5.47006328      -0.09146750       0.10603580      -0.11622133      -0.08145184
X        2.08280779      -0.42656199       6.40417868      -0.08853767       0.04637731       0.11723297      -0.15825262
X        2.34253263       4.10118091       5.34378368      -0.08736274      -0.18204730      -0.04003723      -0.12066313
X       -0.62319806       1.35455493       6.57752426      -0.11114127       0.23898946      -0.05423603      -0.10334355
X        3.07898600       1.49076045       6.39360512      -0.09487918      -0.10738431      -0.08123473      -0.12844617
X        0.72393436       3.44287604       6.28443961      -0.09177488      -0.00618041      -0.07342131      -0.16059107
X        1.18071007       1.46474566       6.98506625      -0.11733234      -0.09966466      -0.01089064      -0.20287362
